LAMMPS data file via write_data, version 22 Aug 2018, timestep = 0

1536 atoms
2 atom types

7.3614341375868975e-01 2.7903856586243037e+01 xlo xhi
7.3614341375868975e-01 2.7903856586243037e+01 ylo yhi
7.3614341375868975e-01 2.7903856586243037e+01 zlo zhi

Masses

1 28.085
2 15.999

Atoms # charge

210 2 -1.2000000000000000e+00 7.8866317333940144e+00 6.9718607186006842e+00 3.6661378784361660e+00 0 0 0
404 1 2.3999999999999999e+00 1.0065038129466945e+01 1.2525162360858628e+00 2.7976151947914940e+00 0 0 0
1468 2 -1.2000000000000000e+00 1.2945745154389088e+00 1.3177261330219316e+00 5.8239797323950766e+00 0 0 0
1183 1 2.3999999999999999e+00 5.6429867370850273e+00 9.4728600050782337e+00 1.7257698912152071e+00 0 0 0
511 1 2.3999999999999999e+00 1.0297329846696194e+01 7.8772451575889750e+00 6.2159185361346747e+00 0 0 0
228 2 -1.2000000000000000e+00 6.6050273838512936e+00 8.9224528971863322e+00 4.9885680306036040e+00 0 0 0
209 2 -1.2000000000000000e+00 1.3194867494133144e+01 9.0583676255131333e+00 1.9083984816994748e+00 0 0 0
1393 1 2.3999999999999999e+00 8.0078998185545487e+00 8.4010770314637710e+00 4.3964341916553487e+00 0 0 0
1265 2 -1.2000000000000000e+00 4.9801182550090042e+00 7.6612599905297811e+00 6.6574608550577903e+00 0 0 0
616 2 -1.2000000000000000e+00 1.3459588611365419e+01 6.5655282704810576e+00 1.0842603435238085e+00 0 0 0
37 1 2.3999999999999999e+00 7.4386310435829284e+00 4.8612856037829522e+00 7.2148003111972985e+00 0 0 0
881 2 -1.2000000000000000e+00 6.2515193339885835e+00 5.4082969714502864e+00 6.2872572399041182e+00 0 0 0
117 2 -1.2000000000000000e+00 1.5819273899304607e+00 7.4703307165755435e+00 5.7356100569476016e+00 0 0 0
167 2 -1.2000000000000000e+00 3.0121908170932961e+00 2.3762440900452777e+00 7.3867780466331165e+00 0 0 0
1495 1 2.3999999999999999e+00 1.1552906136575803e+01 5.5576357034382839e+00 4.7109312607495317e+00 0 0 0
189 2 -1.2000000000000000e+00 4.1485711398935088e+00 9.4521311397769985e+00 4.9771862232015822e+00 0 0 0
338 1 2.3999999999999999e+00 1.7073162876760390e+00 2.7326249702969689e+00 6.4873297592304136e+00 0 0 0
294 2 -1.2000000000000000e+00 7.7895950646739074e+00 1.2957514609492291e+00 5.3558834309228347e+00 0 0 0
1461 2 -1.2000000000000000e+00 2.0350238295210223e+00 7.7913726237789067e+00 2.9537535366428060e+00 0 0 0
1171 1 2.3999999999999999e+00 4.5510405507111997e+00 2.0924081473455489e+00 3.9911891775598982e+00 0 0 0
114 2 -1.2000000000000000e+00 1.2371005151997288e+01 4.1476930104593848e+00 1.4951306105223909e+00 0 0 0
547 1 2.3999999999999999e+00 1.1050453426020728e+00 7.2938544830664389e+00 4.1701451522064676e+00 0 0 0
627 2 -1.2000000000000000e+00 3.5892108168872690e+00 5.9240403124386658e+00 2.3268181235720165e+00 0 0 0
1150 2 -1.2000000000000000e+00 1.2811553043486786e+01 1.6947718802172651e+00 5.8174477243170868e+00 0 0 0
498 2 -1.2000000000000000e+00 1.2789641518530509e+01 6.5899231128083740e+00 4.8404905900915258e+00 0 0 0
1069 1 2.3999999999999999e+00 6.9922014580717011e+00 6.5486334525064009e+00 2.3918473816819059e+00 0 0 0
644 1 2.3999999999999999e+00 4.4468197308481381e+00 5.1689045757437286e+00 3.4441513771008490e+00 0 0 0
350 1 2.3999999999999999e+00 1.4270504985148609e+01 1.0908012472869379e+00 6.0164604731926659e+00 0 0 0
1258 2 -1.2000000000000000e+00 1.1913449582831126e+01 4.1264315748498941e+00 5.2901623893285343e+00 0 0 0
693 2 -1.2000000000000000e+00 4.2153074015927299e+00 3.6006860980381710e+00 3.6137391368467555e+00 0 0 0
332 1 2.3999999999999999e+00 1.0896542015367526e+01 4.1536837396924753e+00 2.1477876943276373e+00 0 0 0
69 2 -1.2000000000000000e+00 8.9586714710239743e+00 8.4150168898251252e+00 5.6677357576945546e+00 0 0 0
1149 2 -1.2000000000000000e+00 1.0523805700647603e+01 2.7851937218075538e+00 2.9205860250439870e+00 0 0 0
568 2 -1.2000000000000000e+00 1.0190659891963342e+01 2.2400216314264547e+00 5.9769750223196976e+00 0 0 0
1519 1 2.3999999999999999e+00 1.4950169528922541e+00 8.2939247061443844e+00 7.1210139829624390e+00 0 0 0
449 2 -1.2000000000000000e+00 5.9434337414599137e+00 5.4923426487628397e+00 2.9530013924522791e+00 0 0 0
492 2 -1.2000000000000000e+00 6.0274606554318675e+00 1.7554835126787525e+00 3.4798141171529111e+00 0 0 0
605 2 -1.2000000000000000e+00 4.6545798161170646e+00 1.8437527060319330e+00 5.6350983085296651e+00 0 0 0
1054 2 -1.2000000000000000e+00 8.8156791774132071e+00 9.2740297151701192e+00 3.3069316466206109e+00 0 0 0
620 1 2.3999999999999999e+00 5.3282838296115695e+00 9.0896548778105828e+00 5.9831341084964231e+00 0 0 0
1470 2 -1.2000000000000000e+00 1.0522680988422270e+01 6.3465758447711869e+00 5.6588286091810875e+00 0 0 0
992 1 2.3999999999999999e+00 8.7012516677958427e+00 1.9691557241121342e+00 6.4987361449332610e+00 0 0 0
1449 2 -1.2000000000000000e+00 1.0987097298000771e+01 5.3539389346109969e+00 3.2354762247811193e+00 0 0 0
618 2 -1.2000000000000000e+00 4.1798662435856144e+00 5.8517396496974987e+00 4.8981961918821417e+00 0 0 0
1195 1 2.3999999999999999e+00 1.3086434870764785e+01 8.1627025866224905e+00 5.3287434746192748e+00 0 0 0
1192 2 -1.2000000000000000e+00 1.1557533760699100e+01 8.6147164479010421e+00 5.5386503644286611e+00 0 0 0
342 2 -1.2000000000000000e+00 6.2169962660293114e+00 8.0397875629445998e+00 2.1814566049083197e+00 0 0 0
489 2 -1.2000000000000000e+00 1.8184737096592869e+00 3.7154288773582325e+00 5.2416451993915381e+00 0 0 0
199 1 2.3999999999999999e+00 2.6107491276394206e+00 7.0225237474752795e+00 1.6618271197824677e+00 0 0 0
128 1 2.3999999999999999e+00 1.1686044162170054e+01 2.7818336514920348e+00 6.1379356985434734e+00 0 0 0
1460 1 2.3999999999999999e+00 7.2266853291602455e+00 8.1863593214499619e-01 3.9317572845348741e+00 0 0 0
560 1 2.3999999999999999e+00 4.7487204600510431e+00 6.0674884850602213e+00 6.3735891852360709e+00 0 0 0
744 2 -1.2000000000000000e+00 9.2003432623841852e-01 5.7296666419955784e+00 3.8621484377748061e+00 0 0 0
329 2 -1.2000000000000000e+00 8.0356814858241314e+00 3.4208804017813050e+00 6.8184114400771643e+00 0 0 0
960 2 -1.2000000000000000e+00 9.7762287227265077e+00 4.4111242887012807e+00 1.0194935796857658e+00 0 0 0
358 2 -1.2000000000000000e+00 1.4087354770008861e+01 8.7549509293314802e+00 4.2807628631580616e+00 0 0 0
142 2 -1.2000000000000000e+00 1.0498023443776262e+01 9.0394666735184592e-01 1.2833708898636220e+00 0 0 0
197 2 -1.2000000000000000e+00 1.3770112131606599e+01 8.2851006844963599e+00 6.7720915267234441e+00 0 0 0
783 2 -1.2000000000000000e+00 3.5448313873768926e+00 9.5250706252262152e-01 3.4415855596521223e+00 0 0 0
266 1 2.3999999999999999e+00 4.4287757808352186e+00 1.5662283931916532e+00 7.2249278960230399e+00 0 0 0
1498 2 -1.2000000000000000e+00 1.5631376003232160e+00 6.1014358328708642e+00 8.4986530041012387e-01 0 0 0
678 2 -1.2000000000000000e+00 1.1475540296973155e+00 3.3138720489183666e+00 2.6445499276065920e+00 0 0 0
427 1 2.3999999999999999e+00 8.6917335573089094e-01 4.1390736281458409e+00 3.9871836839286612e+00 0 0 0
807 2 -1.2000000000000000e+00 7.7372775071722693e+00 5.9842731122984913e+00 1.0801939212775638e+00 0 0 0
269 2 -1.2000000000000000e+00 8.5174996417244380e+00 9.8326612467679553e-01 3.0004321311980475e+00 0 0 0
1142 1 2.3999999999999999e+00 7.8198822449264327e-01 2.8719404807887408e+00 1.1268212939626501e+00 1 0 0
1234 2 -1.2000000000000000e+00 1.2266710559420129e+00 8.9274691881300221e+00 1.3205739287710896e+01 0 0 0
1423 1 2.3999999999999999e+00 9.6423214003212081e+00 6.5820902109009536e+00 8.6298657132516965e+00 0 0 0
1506 2 -1.2000000000000000e+00 7.2050152605681674e+00 2.9919233222447263e+00 1.0271550969295955e+01 0 0 0
1111 1 2.3999999999999999e+00 1.1239968182366605e+01 3.9461909957863806e+00 9.0501025858738764e+00 0 0 0
282 2 -1.2000000000000000e+00 1.1998818491951885e+01 8.3481998651243536e+00 1.3578893030462632e+01 0 0 0
1001 2 -1.2000000000000000e+00 1.0699748964675429e+01 9.3277087125273628e+00 1.0744594283220566e+01 0 0 0
226 2 -1.2000000000000000e+00 1.2313083587710054e+01 3.7581991482767414e+00 1.0246321613899880e+01 0 0 0
540 2 -1.2000000000000000e+00 3.4262650113827480e+00 6.1783173525673272e+00 1.0048475799500560e+01 0 0 0
1407 2 -1.2000000000000000e+00 1.4160663444891643e+01 3.9592044196497516e+00 1.2421247585105016e+01 0 0 0
385 1 2.3999999999999999e+00 8.7778222538749819e+00 3.2441118357707137e+00 1.0613724197839643e+01 0 0 0
1039 1 2.3999999999999999e+00 1.2552725559037258e+01 7.1178505493823137e+00 1.2706073981539928e+01 0 0 0
10 2 -1.2000000000000000e+00 9.1582779550093996e+00 2.1713584269671529e+00 1.1727850558256954e+01 0 0 0
321 2 -1.2000000000000000e+00 1.3926734800413501e+01 7.4599354213693685e+00 1.1953954526260041e+01 0 0 0
721 1 2.3999999999999999e+00 5.4646174934075642e+00 3.0253764215848720e+00 1.3105049163802715e+01 0 0 0
708 2 -1.2000000000000000e+00 1.1718008225520384e+01 3.3210417131797101e+00 7.6806853697599839e+00 0 0 0
281 2 -1.2000000000000000e+00 4.8707182481196121e+00 1.8297724029874867e+00 1.2189931197221851e+01 0 0 0
1209 2 -1.2000000000000000e+00 5.2504198687009351e+00 4.5064962622136200e+00 1.2496800041147592e+01 0 0 0
487 1 2.3999999999999999e+00 5.9331745445923936e+00 3.3397695912612231e+00 9.3041488751051791e+00 0 0 0
983 2 -1.2000000000000000e+00 1.2956726998249247e+01 5.8696840791903542e+00 1.3697824806226025e+01 0 0 0
112 2 -1.2000000000000000e+00 6.6081336338842318e+00 4.6100265812774666e+00 8.5928318784795223e+00 0 0 0
581 2 -1.2000000000000000e+00 9.2821345080740780e+00 4.6228783587840310e+00 1.1389139370919386e+01 0 0 0
1174 2 -1.2000000000000000e+00 4.4209271082907842e+00 3.8139996809101659e+00 9.6601888856602844e+00 0 0 0
437 2 -1.2000000000000000e+00 9.7173196757173059e+00 5.7473650622846284e+00 1.3672364001085011e+01 0 0 0
1155 2 -1.2000000000000000e+00 6.4441191619298213e+00 6.7310796033575384e+00 1.1310353829727639e+01 0 0 0
1024 2 -1.2000000000000000e+00 8.3049631509271720e+00 8.7102680059535160e+00 1.1637652818684902e+01 0 0 0
302 1 2.3999999999999999e+00 1.0420580337832563e+01 5.1932861091321003e+00 1.2366209274572691e+01 0 0 0
407 2 -1.2000000000000000e+00 9.7641220127264656e+00 3.2581903299632984e+00 9.3939238274587868e+00 0 0 0
621 2 -1.2000000000000000e+00 1.2853217100097247e+01 8.7194178793266808e+00 9.1824842061042418e+00 0 0 0
887 2 -1.2000000000000000e+00 5.5991804997816166e+00 2.2139495298001757e+00 8.1756920640827371e+00 0 0 0
1369 1 2.3999999999999999e+00 8.1983850271118470e+00 1.7300001501755591e+00 1.2919515038108848e+01 0 0 0
110 1 2.3999999999999999e+00 1.2964368114293750e+01 4.2505438275032175e+00 1.3516135499749399e+01 0 0 0
1511 2 -1.2000000000000000e+00 9.9713576199792486e-01 6.3649865577127436e+00 1.3482941830658467e+01 0 0 0
639 2 -1.2000000000000000e+00 1.4913520091441492e+00 7.5840293208073035e+00 1.1105208564239224e+01 0 0 0
53 2 -1.2000000000000000e+00 1.1367533074315249e+01 6.4113913642916591e+00 1.1870344066252924e+01 0 0 0
1067 2 -1.2000000000000000e+00 1.1999821429807808e+01 1.4335305913461469e+00 9.9937661989491922e+00 0 0 0
1153 1 2.3999999999999999e+00 2.7190274144465860e+00 7.5863091451446669e+00 9.9916094212417033e+00 0 0 0
1213 1 2.3999999999999999e+00 5.8571565255528073e+00 5.9945495270178535e+00 1.2591147719926600e+01 0 0 0
409 1 2.3999999999999999e+00 7.4745405315922051e+00 7.7592974039537976e+00 1.0593258814063974e+01 0 0 0
176 1 2.3999999999999999e+00 3.3601315984576181e+00 4.8817442560673676e+00 9.1124829321394660e+00 0 0 0
299 2 -1.2000000000000000e+00 6.5010930881183597e+00 8.6941110197034845e+00 9.6671012157416207e+00 0 0 0
496 2 -1.2000000000000000e+00 1.1490944892411568e+01 4.0406058667305107e+00 1.2884471682196420e+01 0 0 0
309 2 -1.2000000000000000e+00 7.1777157711095869e+00 5.8348537065314821e+00 1.3516136882807306e+01 0 0 0
663 2 -1.2000000000000000e+00 1.0763883013676901e+01 5.4931942815510117e+00 8.9233925419798652e+00 0 0 0
872 1 2.3999999999999999e+00 9.5066422990535102e+00 9.7761745835628773e+00 1.1757905429229478e+01 0 0 0
484 2 -1.2000000000000000e+00 1.3400028892424997e+01 1.3623126602943230e+00 1.2014236549543353e+01 0 0 0
733 1 2.3999999999999999e+00 1.3992644715151446e+01 7.9509873854606887e+00 8.3514862252113922e+00 0 0 0
1480 2 -1.2000000000000000e+00 3.8562600634288628e+00 8.6723221249352633e+00 1.0162801205232329e+01 0 0 0
747 2 -1.2000000000000000e+00 7.0731036679935029e+00 2.8171694071443980e+00 1.3122626855631056e+01 0 0 0
1276 2 -1.2000000000000000e+00 8.6501910472415648e+00 7.0664711351019580e+00 9.7680124717982846e+00 0 0 0
817 1 2.3999999999999999e+00 1.3104690363135763e+01 2.3975644463941177e+00 1.0775825421593927e+01 0 0 0
1139 2 -1.2000000000000000e+00 1.7498231290762063e+00 4.6081097634970991e+00 9.0763845710399114e+00 0 0 0
317 2 -1.2000000000000000e+00 4.8202193758731120e+00 6.8121546018612458e+00 1.3545218277905079e+01 0 0 0
716 1 2.3999999999999999e+00 5.2076529667515734e+00 9.5125304527259349e+00 1.0214128685428133e+01 0 0 0
876 2 -1.2000000000000000e+00 1.4016048446755409e+01 6.3430831710520916e+00 8.2683505493519363e+00 0 0 0
694 2 -1.2000000000000000e+00 2.1948177436687546e+00 7.7958784051310568e+00 8.4571592715714594e+00 0 0 0
1410 2 -1.2000000000000000e+00 1.0323696881465681e+01 7.7938673940637440e+00 7.8019739445068756e+00 0 0 0
736 2 -1.2000000000000000e+00 8.8680344128032171e+00 1.2560715744345323e+00 1.4226941769876547e+01 0 0 0
1516 2 -1.2000000000000000e+00 5.5965667039398355e+00 9.6177077937823565e+00 1.1780109264052960e+01 0 0 0
1408 2 -1.2000000000000000e+00 1.3294811625763794e+00 3.9473516062552658e+00 1.4241948075001790e+01 0 0 0
765 2 -1.2000000000000000e+00 3.8957393081253837e+00 5.3403990321045747e+00 7.5675775627156519e+00 0 0 0
340 2 -1.2000000000000000e+00 3.7484490076778090e+00 9.7909349690253933e+00 1.3511678807550531e+01 0 0 0
394 2 -1.2000000000000000e+00 8.5843537007581965e+00 5.8764089444112422e+00 7.5807157765234496e+00 0 0 0
773 2 -1.2000000000000000e+00 8.7251023593713146e+00 8.6370521226609154e-01 7.6863886134028894e+00 0 0 0
73 1 2.3999999999999999e+00 8.8742930646215701e+00 8.2225297425307886e+00 1.6425271415080822e+01 0 0 0
927 2 -1.2000000000000000e+00 8.3348837589482550e+00 7.0346178678945188e+00 1.5485897656693460e+01 0 0 0
1177 1 2.3999999999999999e+00 1.0264235521966178e+01 1.4140313821981740e+00 1.6901271335539295e+01 0 0 0
1175 2 -1.2000000000000000e+00 1.0240839986016566e+01 8.7285633002480765e+00 1.5666709690464399e+01 0 0 0
17 2 -1.2000000000000000e+00 1.1211104549175978e+01 6.5253647586896699e+00 1.7679478966704426e+01 0 0 0
1125 2 -1.2000000000000000e+00 1.0613101800360636e+00 9.0806884040467448e+00 1.9399932455824629e+01 0 0 0
1324 2 -1.2000000000000000e+00 4.7650505155038161e+00 4.2042840687013268e+00 1.9864174720144682e+01 0 0 0
818 1 2.3999999999999999e+00 1.4013265341530353e+01 3.3405729475307266e+00 1.8972014214703538e+01 0 0 0
754 2 -1.2000000000000000e+00 5.2280982249262067e+00 5.2249597030719572e+00 1.5585460327139184e+01 0 0 0
1228 2 -1.2000000000000000e+00 1.0760198313924459e+01 8.7801820817230436e-01 1.8319014984112634e+01 0 0 0
665 2 -1.2000000000000000e+00 1.2035710198270410e+01 9.1048236172729435e+00 1.8495899299031620e+01 0 0 0
812 1 2.3999999999999999e+00 4.3910871772842501e+00 6.5046165631736574e+00 1.5077222126496524e+01 0 0 0
1075 1 2.3999999999999999e+00 8.3771834250775932e+00 5.7481117774411290e+00 1.4543486106942893e+01 0 0 0
480 2 -1.2000000000000000e+00 1.3830827216658673e+01 1.2366287965360345e+00 1.6272600399889310e+01 0 0 0
435 2 -1.2000000000000000e+00 6.5609678613920819e+00 3.4637825851752164e+00 1.6917016952545524e+01 0 0 0
1429 1 2.3999999999999999e+00 4.4120708548836696e+00 7.8751330913570179e+00 1.7775927970218245e+01 0 0 0
425 2 -1.2000000000000000e+00 2.8512228703788431e+00 5.9887700089715850e+00 1.5144033428018361e+01 0 0 0
1123 1 2.3999999999999999e+00 1.2355788590659174e+01 7.6660335174611784e+00 1.7788820700281178e+01 0 0 0
563 2 -1.2000000000000000e+00 1.0090914833415161e+01 6.0463165303722137e+00 1.9918165263109959e+01 0 0 0
1291 1 2.3999999999999999e+00 2.5222893640117441e+00 3.2651859341976017e+00 1.7924519711469721e+01 0 0 0
883 1 2.3999999999999999e+00 1.2996916231936208e+01 2.6374100221109020e+00 1.6199945388312301e+01 0 0 0
1456 2 -1.2000000000000000e+00 7.9118698362951791e+00 9.4608118351754698e+00 1.6410700867079392e+01 0 0 0
287 2 -1.2000000000000000e+00 1.3344661365309999e+01 3.4117054385001686e+00 1.7542294887149595e+01 0 0 0
1301 2 -1.2000000000000000e+00 1.2969656139127538e+01 2.8182943185063545e+00 2.0069014516770952e+01 0 0 0
155 2 -1.2000000000000000e+00 5.3825544765017881e+00 9.0232730724544528e+00 1.8244488439438218e+01 0 0 0
1047 2 -1.2000000000000000e+00 4.6567601542120904e+00 7.5645609461168890e+00 1.6209094939594170e+01 0 0 0
967 1 2.3999999999999999e+00 1.4438208828631907e+00 9.0673070868757364e+00 1.7819129966378227e+01 0 0 0
1115 2 -1.2000000000000000e+00 1.3523336762200586e+01 7.0512705654070098e+00 1.8754690600191275e+01 0 0 0
1352 1 2.3999999999999999e+00 4.7958325969446882e+00 5.7549885438863848e+00 2.0141531409847190e+01 0 0 0
1099 1 2.3999999999999999e+00 4.2311642456409748e+00 2.7347242095704254e+00 2.0303470787846052e+01 0 0 0
157 1 2.3999999999999999e+00 5.1626840515144412e+00 3.6981089965851108e+00 1.6124472872178888e+01 0 0 0
1017 2 -1.2000000000000000e+00 5.4303197434523653e+00 1.6811719343842380e+00 2.0085279711002809e+01 0 0 0
485 2 -1.2000000000000000e+00 1.7970319720919179e+00 4.6015584658873294e+00 1.8523149593932967e+01 0 0 0
159 2 -1.2000000000000000e+00 8.9007013852352319e+00 4.8827232750088490e+00 1.7863224868499525e+01 0 0 0
462 2 -1.2000000000000000e+00 2.9160274750754782e+00 8.4936458943139357e+00 1.7754918666556872e+01 0 0 0
638 1 2.3999999999999999e+00 9.7530624433904514e+00 6.1592071638192625e+00 1.8373932875254166e+01 0 0 0
705 2 -1.2000000000000000e+00 1.1449011086159370e+01 2.2596536686307580e+00 1.6239013182758477e+01 0 0 0
330 2 -1.2000000000000000e+00 8.9934827724653044e+00 2.3708774413790699e+00 1.7067456561530687e+01 0 0 0
1023 2 -1.2000000000000000e+00 3.8122420418721501e+00 3.5293613158320585e+00 1.6965764253254356e+01 0 0 0
1481 2 -1.2000000000000000e+00 8.3875243294660997e+00 4.4186069189291430e+00 1.5447896489684130e+01 0 0 0
724 2 -1.2000000000000000e+00 1.4364021515357035e+00 2.4030814663430111e+00 1.7093259760024900e+01 0 0 0
1005 2 -1.2000000000000000e+00 1.3026062265046281e+01 7.9905273775616807e+00 1.6358599415059601e+01 0 0 0
1089 2 -1.2000000000000000e+00 3.0596593862677990e+00 2.4685636058641642e+00 1.9195999156266993e+01 0 0 0
135 2 -1.2000000000000000e+00 4.6447704594164350e+00 6.6417302595856604e+00 1.8797336409039023e+01 0 0 0
1466 1 2.3999999999999999e+00 8.1830100238867090e+00 3.7221391830616528e+00 1.6901651551040558e+01 0 0 0
1464 2 -1.2000000000000000e+00 1.3236167863190119e+01 3.4445953563123868e+00 1.4842927048176927e+01 0 0 0
789 2 -1.2000000000000000e+00 9.0171844410114907e+00 7.5340448192103207e+00 1.7870953577683153e+01 0 0 0
308 1 2.3999999999999999e+00 9.9064018345513216e-01 1.0913985584676928e+00 1.6316159359158235e+01 0 0 0
1303 1 2.3999999999999999e+00 1.3953875359585293e+00 5.4317411418550225e+00 1.4773124260345831e+01 0 0 0
796 2 -1.2000000000000000e+00 5.0654412693023270e+00 2.9248274425606984e+00 1.4677063258273783e+01 0 0 0
870 2 -1.2000000000000000e+00 1.0547668348989825e+00 1.4422585678663733e+00 1.4729252956783723e+01 0 0 0
968 1 2.3999999999999999e+00 1.1081908403490786e+01 9.3884297614896699e+00 1.4458718622170977e+01 0 0 0
375 2 -1.2000000000000000e+00 3.4987775774637582e+00 6.0545852475463731e+00 2.1070263624593320e+01 0 0 0
628 2 -1.2000000000000000e+00 8.8377872274990688e-01 4.4026169555402221e+00 2.1018608381430816e+01 0 0 0
238 2 -1.2000000000000000e+00 1.0107009214593933e+01 4.5236278597063198e+00 2.2121364234319305e+01 0 0 0
756 2 -1.2000000000000000e+00 6.6030895363369142e+00 7.5828656745135783e+00 2.3207320016157400e+01 0 0 0
1524 2 -1.2000000000000000e+00 3.2570813960585778e+00 7.9704460049284940e+00 2.7720511016738747e+01 0 0 0
1404 2 -1.2000000000000000e+00 1.3006623524399817e+01 5.0292629629833261e+00 2.6326225476087771e+01 0 0 0
731 2 -1.2000000000000000e+00 3.1905628811786206e+00 5.4725582794396557e+00 2.6077575029750371e+01 0 0 0
821 2 -1.2000000000000000e+00 1.3856323510820344e+01 3.6795126961734166e+00 2.4308890966589626e+01 0 0 0
1140 2 -1.2000000000000000e+00 1.3018336848900040e+01 6.3442826100071352e+00 2.4035808248244482e+01 0 0 0
1249 1 2.3999999999999999e+00 6.0655837479871009e+00 1.2218076038198808e+00 2.3817450818424238e+01 0 0 0
784 2 -1.2000000000000000e+00 9.1863016728785745e+00 8.9399132866108832e+00 2.6209883277761563e+01 0 0 0
442 2 -1.2000000000000000e+00 1.1172899135524450e+01 6.8895001111611647e+00 2.2250007931420310e+01 0 0 0
1078 2 -1.2000000000000000e+00 7.3836329721923155e+00 9.5672900125630473e+00 2.1716346278250622e+01 0 0 0
264 2 -1.2000000000000000e+00 1.1028578929312369e+01 7.7915210242742381e+00 2.4730204134389925e+01 0 0 0
1428 2 -1.2000000000000000e+00 1.7766207688960129e+00 1.1798653416592890e+00 2.4456551005709589e+01 0 0 0
599 2 -1.2000000000000000e+00 8.1023736569448950e+00 4.3649670187081231e+00 2.5975509445524306e+01 0 0 0
104 1 2.3999999999999999e+00 3.7169924991234420e+00 9.0947142043458999e+00 2.3576647089726077e+01 0 0 0
346 2 -1.2000000000000000e+00 1.2666866400836000e+01 8.9323704775085382e+00 2.3078227607126429e+01 0 0 0
443 2 -1.2000000000000000e+00 3.9814446199297899e+00 8.5469977936189920e+00 2.5097055588749562e+01 0 0 0
664 2 -1.2000000000000000e+00 1.3974955767065639e+01 8.7546048151736073e+00 2.6683854070826285e+01 0 0 0
1208 1 2.3999999999999999e+00 3.9445581936795451e+00 8.9539428057924884e+00 2.6626788957631948e+01 0 0 0
315 2 -1.2000000000000000e+00 1.0104116351830701e+01 2.2486337651228432e+00 2.3861535606699253e+01 0 0 0
588 2 -1.2000000000000000e+00 7.2565034841367888e+00 5.0973211798210132e+00 2.3494150046431020e+01 0 0 0
501 2 -1.2000000000000000e+00 1.1963589856857755e+01 2.7260141636083688e+00 2.2354045550573087e+01 0 0 0
1052 1 2.3999999999999999e+00 1.2056605898712265e+01 7.5159552772218010e+00 2.3485491723319175e+01 0 0 0
666 2 -1.2000000000000000e+00 1.6862826927371386e+00 5.5719629773502763e+00 2.2999033135649071e+01 0 0 0
146 1 2.3999999999999999e+00 1.0004040701550814e+01 6.0495349353038144e+00 2.1515337979115703e+01 0 0 0
1235 2 -1.2000000000000000e+00 1.1417043290189248e+01 4.4096938422648098e+00 2.4303424246874719e+01 0 0 0
738 2 -1.2000000000000000e+00 3.4262266566868407e+00 3.2108785557978523e+00 2.5011566310398610e+01 0 0 0
525 2 -1.2000000000000000e+00 8.5578440181427098e+00 6.5667927372056312e+00 2.1882350550726077e+01 0 0 0
1368 2 -1.2000000000000000e+00 9.6454887198568553e+00 6.3981948295034030e+00 2.6510029090928359e+01 0 0 0
541 1 2.3999999999999999e+00 7.0107280136570909e+00 4.1423892184306448e+00 2.4776487650198803e+01 0 0 0
764 1 2.3999999999999999e+00 1.2903848731597053e+01 4.9049876157163395e+00 2.4757914057543811e+01 0 0 0
1502 1 2.3999999999999999e+00 3.0825339759121007e+00 6.2334151822301669e+00 2.2602608615572070e+01 0 0 0
218 1 2.3999999999999999e+00 7.0715941092962922e+00 6.2727433429658950e+00 2.2414704871707922e+01 0 0 0
1046 1 2.3999999999999999e+00 1.0776249721605543e+01 3.5281813219616529e+00 2.3134438795326940e+01 0 0 0
491 2 -1.2000000000000000e+00 1.1534662542671365e+01 8.0619580610507793e+00 2.7268035727261253e+01 0 0 0
41 2 -1.2000000000000000e+00 5.6183936232663285e+00 4.5853527701688588e+00 2.5457252782268242e+01 0 0 0
224 1 2.3999999999999999e+00 1.0331088875557533e+01 7.7932734761595084e+00 2.6200481159759956e+01 0 0 0
48 2 -1.2000000000000000e+00 3.1691352353794073e+00 7.8049028321130285e+00 2.2831278330124778e+01 0 0 0
920 1 2.3999999999999999e+00 6.6803255867557203e+00 9.1787974393806682e+00 2.3118720398622916e+01 0 0 0
1198 2 -1.2000000000000000e+00 4.0786316548931980e+00 5.4653491481125851e+00 2.3611649654892179e+01 0 0 0
1329 2 -1.2000000000000000e+00 6.6567137688824509e+00 2.7039040029039647e+00 2.4126505252679927e+01 0 0 0
1356 2 -1.2000000000000000e+00 4.5755174334549658e+00 1.0659475218990400e+00 2.4358077707627373e+01 0 0 0
475 1 2.3999999999999999e+00 4.1067920413011620e+00 4.7009442036397271e+00 2.5023016681164261e+01 0 0 0
1027 1 2.3999999999999999e+00 1.0716541646015417e+01 9.5341658689945330e-01 2.4533230193501133e+01 0 0 0
732 2 -1.2000000000000000e+00 1.7982426140470440e+00 3.6164720581810670e+00 2.7311026736282610e+01 0 0 0
697 1 2.3999999999999999e+00 8.7859679379834521e+00 5.2201072762121523e+00 2.7195248593397150e+01 0 0 0
1292 1 2.3999999999999999e+00 1.8110232863198343e+00 5.1152683098665968e+00 2.6756402432871294e+01 0 0 0
1084 2 -1.2000000000000000e+00 1.3972951742377548e+01 9.6570319098181145e-01 2.1707331972799583e+01 0 0 0
14 1 2.3999999999999999e+00 3.2150028501051797e+00 1.6062910558326240e+00 2.5046203943727907e+01 0 0 0
352 2 -1.2000000000000000e+00 1.1391867463626840e+01 1.2031976169825067e+00 2.6003576814565402e+01 0 0 0
1512 2 -1.2000000000000000e+00 5.3312805538363186e+00 9.2659521703257681e+00 2.7320111168742304e+01 0 0 0
1030 2 -1.2000000000000000e+00 3.7348935057568537e+00 2.6791426002202683e+00 2.1760891632676167e+01 0 0 0
1522 2 -1.2000000000000000e+00 5.1381140471024702e+00 9.6299369281292755e+00 2.3064891510273476e+01 0 0 0
457 1 2.3999999999999999e+00 1.3055941825441554e+01 8.0712546813847812e+00 2.7831462423968478e+01 0 0 0
504 2 -1.2000000000000000e+00 7.5193121862380350e+00 9.7905564706664094e+00 2.4324938071314715e+01 0 0 0
373 1 2.3999999999999999e+00 1.3499982586431864e+01 4.9794374235587515e+00 2.7898399539176246e+01 0 0 0
1231 1 2.3999999999999999e+00 1.2608100218381447e+01 1.8189024683432913e+00 2.1249716740787669e+01 0 0 0
105 2 -1.2000000000000000e+00 3.3023628032362273e+00 7.4113986581478086e-01 2.6486675495260183e+01 0 0 0
288 2 -1.2000000000000000e+00 6.0637338083013006e+00 6.0635935056640466e+00 2.1147552875624772e+01 0 0 0
843 2 -1.2000000000000000e+00 6.6886478667881883e+00 1.7807207618361055e+01 3.2853570227856284e+00 0 0 0
955 1 2.3999999999999999e+00 1.1052648419915387e+01 1.1754611724063272e+01 7.3552728506067622e+00 0 0 0
1484 1 2.3999999999999999e+00 1.2460957576807067e+01 1.5952563073559757e+01 2.6046781231716527e+00 0 0 0
900 2 -1.2000000000000000e+00 1.3414575263920224e+01 1.1324797685145914e+01 3.7223431508926081e+00 0 0 0
917 2 -1.2000000000000000e+00 1.1250959892651402e+01 1.0412193857679402e+01 2.8542148383333794e+00 0 0 0
1370 1 2.3999999999999999e+00 1.9246330457906511e+00 1.3774497204988277e+01 1.0231155234106557e+00 0 0 0
447 2 -1.2000000000000000e+00 7.5487332929400592e+00 1.3163678745934316e+01 1.1042475236809834e+00 0 0 0
946 2 -1.2000000000000000e+00 1.2955549493025895e+01 1.1393212649280303e+01 1.0854196778030389e+00 0 0 0
1222 2 -1.2000000000000000e+00 1.2476522786717451e+01 1.7513923704318938e+01 2.3887292647459208e+00 0 0 0
331 1 2.3999999999999999e+00 4.3897428613604648e+00 1.5522517478807368e+01 5.5688951624385004e+00 0 0 0
1009 1 2.3999999999999999e+00 1.2893230610089697e+01 1.2128086710390690e+01 5.0156804270148081e+00 0 0 0
1252 2 -1.2000000000000000e+00 5.6902661198117306e+00 1.4994601491357759e+01 1.1803324371039869e+00 0 0 0
19 1 2.3999999999999999e+00 5.8838126549082919e+00 1.2972367266749268e+01 4.6403111001646966e+00 0 0 0
867 2 -1.2000000000000000e+00 3.1521059551124120e+00 1.5240778048563108e+01 4.5966148629126629e+00 0 0 0
1063 1 2.3999999999999999e+00 5.5641181370541908e+00 1.8231093844040654e+01 4.3572009490578854e+00 0 0 0
806 1 2.3999999999999999e+00 6.9478477653131439e+00 1.4375710081906863e+01 1.9637888155937293e+00 0 0 0
912 2 -1.2000000000000000e+00 1.0069064328159781e+01 1.3813199249417492e+01 2.5838472493464737e+00 0 0 0
400 2 -1.2000000000000000e+00 2.2010449195413453e+00 1.0950369089340803e+01 4.3180022588059117e+00 0 0 0
161 2 -1.2000000000000000e+00 5.3315369767442151e+00 1.4242094468624037e+01 5.4409390404931983e+00 0 0 0
1281 2 -1.2000000000000000e+00 1.3490844704297148e+01 1.7643035364583085e+01 4.7445258317509946e+00 0 0 0
151 1 2.3999999999999999e+00 1.0527297628351333e+01 1.4164152147553935e+01 1.1033581535199573e+00 0 0 0
1528 2 -1.2000000000000000e+00 5.4316304105875393e+00 1.0351228206743617e+01 7.0033383972929482e+00 0 0 0
1037 2 -1.2000000000000000e+00 5.0424345141160076e+00 1.6855115963652548e+01 4.9513487101629021e+00 0 0 0
596 1 2.3999999999999999e+00 8.7955796137397755e+00 1.2369266305436978e+01 5.4820781822257549e+00 0 0 0
168 2 -1.2000000000000000e+00 7.6596084263630733e+00 1.4879364406462052e+01 7.2473516339789930e+00 0 0 0
959 2 -1.2000000000000000e+00 9.1387315808867609e+00 1.1168036282313118e+01 1.5833159953670517e+00 0 0 0
692 1 2.3999999999999999e+00 1.2827255690347627e+01 1.0507740747688816e+01 2.4570140635476108e+00 0 0 0
1386 2 -1.2000000000000000e+00 1.2652701692588812e+01 1.5675145042831453e+01 6.3938965416452263e+00 0 0 0
230 1 2.3999999999999999e+00 9.6899919191819137e+00 1.0566037354798661e+01 2.9613846008612401e+00 0 0 0
1333 1 2.3999999999999999e+00 8.0057267456544885e+00 1.6892096155127319e+01 3.3886489773864241e+00 0 0 0
943 1 2.3999999999999999e+00 7.7370051334223620e+00 1.1592100431137117e+01 9.5204107811346184e-01 0 0 0
359 2 -1.2000000000000000e+00 9.5456711965438750e+00 1.1771250548545241e+01 6.7520885819224770e+00 0 0 0
799 1 2.3999999999999999e+00 7.7369006186525180e+00 1.6343201572661723e+01 6.5562966098689301e+00 0 0 0
613 1 2.3999999999999999e+00 1.8611749811833593e+00 1.5049621299933623e+01 3.7318592063321598e+00 0 0 0
1035 2 -1.2000000000000000e+00 6.6608598093627194e+00 1.0714670626815469e+01 1.8292410442608158e+00 0 0 0
1121 2 -1.2000000000000000e+00 1.1859661581376628e+01 1.5080103820153187e+01 1.4572828223024064e+00 0 0 0
263 2 -1.2000000000000000e+00 1.1852398957093447e+01 1.3212175403909631e+01 4.3904155193547671e+00 0 0 0
761 2 -1.2000000000000000e+00 4.7244272130122553e+00 1.1886704638724261e+01 4.3369983098354812e+00 0 0 0
760 2 -1.2000000000000000e+00 9.4955304288630877e+00 1.3841639891881263e+01 5.1448247850904414e+00 0 0 0
636 2 -1.2000000000000000e+00 1.8255776488906459e+00 9.7995378152398320e+00 6.6596049577951444e+00 0 0 0